
Predictions were generated on 10-Sep-2019 at 16:25:25 using AA 
 AeroAcoustics
Number of observers      :  420
     Time           	Obs1                	Obs2                	Obs3                	Obs4                	Obs5                	Obs6                	Obs7                	Obs8                	Obs9                	Obs10               	Obs11               	Obs12               	Obs13               	Obs14               	Obs15               	Obs16               	Obs17               	Obs18               	Obs19               	Obs20               	Obs21               	Obs22               	Obs23               	Obs24               	Obs25               	Obs26               	Obs27               	Obs28               	Obs29               	Obs30               	Obs31               	Obs32               	Obs33               	Obs34               	Obs35               	Obs36               	Obs37               	Obs38               	Obs39               	Obs40               	Obs41               	Obs42               	Obs43               	Obs44               	Obs45               	Obs46               	Obs47               	Obs48               	Obs49               	Obs50               	Obs51               	Obs52               	Obs53               	Obs54               	Obs55               	Obs56               	Obs57               	Obs58               	Obs59               	Obs60               	Obs61               	Obs62               	Obs63               	Obs64               	Obs65               	Obs66               	Obs67               	Obs68               	Obs69               	Obs70               	Obs71               	Obs72               	Obs73               	Obs74               	Obs75               	Obs76               	Obs77               	Obs78               	Obs79               	Obs80               	Obs81               	Obs82               	Obs83               	Obs84               	Obs85               	Obs86               	Obs87               	Obs88               	Obs89               	Obs90               	Obs91               	Obs92               	Obs93               	Obs94               	Obs95               	Obs96               	Obs97               	Obs98               	Obs99               	Obs100              	Obs101              	Obs102              	Obs103              	Obs104              	Obs105              	Obs106              	Obs107              	Obs108              	Obs109              	Obs110              	Obs111              	Obs112              	Obs113              	Obs114              	Obs115              	Obs116              	Obs117              	Obs118              	Obs119              	Obs120              	Obs121              	Obs122              	Obs123              	Obs124              	Obs125              	Obs126              	Obs127              	Obs128              	Obs129              	Obs130              	Obs131              	Obs132              	Obs133              	Obs134              	Obs135              	Obs136              	Obs137              	Obs138              	Obs139              	Obs140              	Obs141              	Obs142              	Obs143              	Obs144              	Obs145              	Obs146              	Obs147              	Obs148              	Obs149              	Obs150              	Obs151              	Obs152              	Obs153              	Obs154              	Obs155              	Obs156              	Obs157              	Obs158              	Obs159              	Obs160              	Obs161              	Obs162              	Obs163              	Obs164              	Obs165              	Obs166              	Obs167              	Obs168              	Obs169              	Obs170              	Obs171              	Obs172              	Obs173              	Obs174              	Obs175              	Obs176              	Obs177              	Obs178              	Obs179              	Obs180              	Obs181              	Obs182              	Obs183              	Obs184              	Obs185              	Obs186              	Obs187              	Obs188              	Obs189              	Obs190              	Obs191              	Obs192              	Obs193              	Obs194              	Obs195              	Obs196              	Obs197              	Obs198              	Obs199              	Obs200              	Obs201              	Obs202              	Obs203              	Obs204              	Obs205              	Obs206              	Obs207              	Obs208              	Obs209              	Obs210              	Obs211              	Obs212              	Obs213              	Obs214              	Obs215              	Obs216              	Obs217              	Obs218              	Obs219              	Obs220              	Obs221              	Obs222              	Obs223              	Obs224              	Obs225              	Obs226              	Obs227              	Obs228              	Obs229              	Obs230              	Obs231              	Obs232              	Obs233              	Obs234              	Obs235              	Obs236              	Obs237              	Obs238              	Obs239              	Obs240              	Obs241              	Obs242              	Obs243              	Obs244              	Obs245              	Obs246              	Obs247              	Obs248              	Obs249              	Obs250              	Obs251              	Obs252              	Obs253              	Obs254              	Obs255              	Obs256              	Obs257              	Obs258              	Obs259              	Obs260              	Obs261              	Obs262              	Obs263              	Obs264              	Obs265              	Obs266              	Obs267              	Obs268              	Obs269              	Obs270              	Obs271              	Obs272              	Obs273              	Obs274              	Obs275              	Obs276              	Obs277              	Obs278              	Obs279              	Obs280              	Obs281              	Obs282              	Obs283              	Obs284              	Obs285              	Obs286              	Obs287              	Obs288              	Obs289              	Obs290              	Obs291              	Obs292              	Obs293              	Obs294              	Obs295              	Obs296              	Obs297              	Obs298              	Obs299              	Obs300              	Obs301              	Obs302              	Obs303              	Obs304              	Obs305              	Obs306              	Obs307              	Obs308              	Obs309              	Obs310              	Obs311              	Obs312              	Obs313              	Obs314              	Obs315              	Obs316              	Obs317              	Obs318              	Obs319              	Obs320              	Obs321              	Obs322              	Obs323              	Obs324              	Obs325              	Obs326              	Obs327              	Obs328              	Obs329              	Obs330              	Obs331              	Obs332              	Obs333              	Obs334              	Obs335              	Obs336              	Obs337              	Obs338              	Obs339              	Obs340              	Obs341              	Obs342              	Obs343              	Obs344              	Obs345              	Obs346              	Obs347              	Obs348              	Obs349              	Obs350              	Obs351              	Obs352              	Obs353              	Obs354              	Obs355              	Obs356              	Obs357              	Obs358              	Obs359              	Obs360              	Obs361              	Obs362              	Obs363              	Obs364              	Obs365              	Obs366              	Obs367              	Obs368              	Obs369              	Obs370              	Obs371              	Obs372              	Obs373              	Obs374              	Obs375              	Obs376              	Obs377              	Obs378              	Obs379              	Obs380              	Obs381              	Obs382              	Obs383              	Obs384              	Obs385              	Obs386              	Obs387              	Obs388              	Obs389              	Obs390              	Obs391              	Obs392              	Obs393              	Obs394              	Obs395              	Obs396              	Obs397              	Obs398              	Obs399              	Obs400              	Obs401              	Obs402              	Obs403              	Obs404              	Obs405              	Obs406              	Obs407              	Obs408              	Obs409              	Obs410              	Obs411              	Obs412              	Obs413              	Obs414              	Obs415              	Obs416              	Obs417              	Obs418              	Obs419              	Obs420              
      (s)           	OASPL               	OASPL               	OASPL               	OASPL               	OASPL               	OASPL               	OASPL               	OASPL               	OASPL               	OASPL               	OASPL               	OASPL               	OASPL               	OASPL               	OASPL               	OASPL               	OASPL               	OASPL               	OASPL               	OASPL               	OASPL               	OASPL               	OASPL               	OASPL               	OASPL               	OASPL               	OASPL               	OASPL               	OASPL               	OASPL               	OASPL               	OASPL               	OASPL               	OASPL               	OASPL               	OASPL               	OASPL               	OASPL               	OASPL               	OASPL               	OASPL               	OASPL               	OASPL               	OASPL               	OASPL               	OASPL               	OASPL               	OASPL               	OASPL               	OASPL               	OASPL               	OASPL               	OASPL               	OASPL               	OASPL               	OASPL               	OASPL               	OASPL               	OASPL               	OASPL               	OASPL               	OASPL               	OASPL               	OASPL               	OASPL               	OASPL               	OASPL               	OASPL               	OASPL               	OASPL               	OASPL               	OASPL               	OASPL               	OASPL               	OASPL               	OASPL               	OASPL               	OASPL               	OASPL               	OASPL               	OASPL               	OASPL               	OASPL               	OASPL               	OASPL               	OASPL               	OASPL               	OASPL               	OASPL               	OASPL               	OASPL               	OASPL               	OASPL               	OASPL               	OASPL               	OASPL               	OASPL               	OASPL               	OASPL               	OASPL               	OASPL               	OASPL               	OASPL               	OASPL               	OASPL               	OASPL               	OASPL               	OASPL               	OASPL               	OASPL               	OASPL               	OASPL               	OASPL               	OASPL               	OASPL               	OASPL               	OASPL               	OASPL               	OASPL               	OASPL               	OASPL               	OASPL               	OASPL               	OASPL               	OASPL               	OASPL               	OASPL               	OASPL               	OASPL               	OASPL               	OASPL               	OASPL               	OASPL               	OASPL               	OASPL               	OASPL               	OASPL               	OASPL               	OASPL               	OASPL               	OASPL               	OASPL               	OASPL               	OASPL               	OASPL               	OASPL               	OASPL               	OASPL               	OASPL               	OASPL               	OASPL               	OASPL               	OASPL               	OASPL               	OASPL               	OASPL               	OASPL               	OASPL               	OASPL               	OASPL               	OASPL               	OASPL               	OASPL               	OASPL               	OASPL               	OASPL               	OASPL               	OASPL               	OASPL               	OASPL               	OASPL               	OASPL               	OASPL               	OASPL               	OASPL               	OASPL               	OASPL               	OASPL               	OASPL               	OASPL               	OASPL               	OASPL               	OASPL               	OASPL               	OASPL               	OASPL               	OASPL               	OASPL               	OASPL               	OASPL               	OASPL               	OASPL               	OASPL               	OASPL               	OASPL               	OASPL               	OASPL               	OASPL               	OASPL               	OASPL               	OASPL               	OASPL               	OASPL               	OASPL               	OASPL               	OASPL               	OASPL               	OASPL               	OASPL               	OASPL               	OASPL               	OASPL               	OASPL               	OASPL               	OASPL               	OASPL               	OASPL               	OASPL               	OASPL               	OASPL               	OASPL               	OASPL               	OASPL               	OASPL               	OASPL               	OASPL               	OASPL               	OASPL               	OASPL               	OASPL               	OASPL               	OASPL               	OASPL               	OASPL               	OASPL               	OASPL               	OASPL               	OASPL               	OASPL               	OASPL               	OASPL               	OASPL               	OASPL               	OASPL               	OASPL               	OASPL               	OASPL               	OASPL               	OASPL               	OASPL               	OASPL               	OASPL               	OASPL               	OASPL               	OASPL               	OASPL               	OASPL               	OASPL               	OASPL               	OASPL               	OASPL               	OASPL               	OASPL               	OASPL               	OASPL               	OASPL               	OASPL               	OASPL               	OASPL               	OASPL               	OASPL               	OASPL               	OASPL               	OASPL               	OASPL               	OASPL               	OASPL               	OASPL               	OASPL               	OASPL               	OASPL               	OASPL               	OASPL               	OASPL               	OASPL               	OASPL               	OASPL               	OASPL               	OASPL               	OASPL               	OASPL               	OASPL               	OASPL               	OASPL               	OASPL               	OASPL               	OASPL               	OASPL               	OASPL               	OASPL               	OASPL               	OASPL               	OASPL               	OASPL               	OASPL               	OASPL               	OASPL               	OASPL               	OASPL               	OASPL               	OASPL               	OASPL               	OASPL               	OASPL               	OASPL               	OASPL               	OASPL               	OASPL               	OASPL               	OASPL               	OASPL               	OASPL               	OASPL               	OASPL               	OASPL               	OASPL               	OASPL               	OASPL               	OASPL               	OASPL               	OASPL               	OASPL               	OASPL               	OASPL               	OASPL               	OASPL               	OASPL               	OASPL               	OASPL               	OASPL               	OASPL               	OASPL               	OASPL               	OASPL               	OASPL               	OASPL               	OASPL               	OASPL               	OASPL               	OASPL               	OASPL               	OASPL               	OASPL               	OASPL               	OASPL               	OASPL               	OASPL               	OASPL               	OASPL               	OASPL               	OASPL               	OASPL               	OASPL               	OASPL               	OASPL               	OASPL               	OASPL               	OASPL               	OASPL               	OASPL               	OASPL               	OASPL               	OASPL               	OASPL               	OASPL               	OASPL               	OASPL               	OASPL               	OASPL               	OASPL               	OASPL               	OASPL               	OASPL               	OASPL               	OASPL               	OASPL               	OASPL               	OASPL               	OASPL               	OASPL               	OASPL               	OASPL               	OASPL               	OASPL               	OASPL               	OASPL               	OASPL               	OASPL               	OASPL               	OASPL               	OASPL               	OASPL               	OASPL               	OASPL               	OASPL               	OASPL               	OASPL               	OASPL               	OASPL               	OASPL               	OASPL               	OASPL               	OASPL               	OASPL               	OASPL               	OASPL               	OASPL               	OASPL               	OASPL               	OASPL               
         0.1000	  4.664035E+001	  4.646379E+001	  4.616174E+001	  4.569220E+001	  4.499580E+001	  4.398479E+001	  4.251965E+001	  4.034975E+001	  3.691994E+001	  3.036025E+001	  1.676360E+001	  3.301562E+001	  3.817396E+001	  4.111154E+001	  4.302212E+001	  4.432586E+001	  4.522780E+001	  4.584715E+001	  4.626085E+001	  4.652177E+001	  4.666773E+001	  4.757901E+001	  4.748683E+001	  4.727670E+001	  4.690569E+001	  4.631242E+001	  4.540557E+001	  4.404011E+001	  4.195786E+001	  3.859395E+001	  3.206220E+001	  1.860243E+001	  3.475109E+001	  3.984589E+001	  4.270139E+001	  4.451556E+001	  4.571550E+001	  4.651222E+001	  4.702927E+001	  4.734633E+001	  4.751773E+001	  4.758187E+001	  4.852052E+001	  4.852159E+001	  4.841537E+001	  4.815862E+001	  4.768840E+001	  4.690977E+001	  4.567112E+001	  4.370402E+001	  4.042928E+001	  3.393695E+001	  2.065125E+001	  3.666709E+001	  4.167527E+001	  4.442096E+001	  4.611001E+001	  4.717959E+001	  4.784839E+001	  4.824480E+001	  4.845094E+001	  4.852204E+001	  4.849642E+001	  4.945464E+001	  4.955716E+001	  4.956669E+001	  4.944089E+001	  4.911641E+001	  4.849545E+001	  4.741933E+001	  4.560626E+001	  4.245581E+001	  3.602177E+001	  2.295932E+001	  3.880177E+001	  4.368811E+001	  4.628346E+001	  4.780807E+001	  4.871347E+001	  4.922748E+001	  4.948296E+001	  4.956347E+001	  4.952392E+001	  4.940141E+001	  5.036842E+001	  5.057882E+001	  5.071451E+001	  5.073580E+001	  5.058117E+001	  5.015229E+001	  4.928465E+001	  4.768073E+001	  4.470913E+001	  3.836630E+001	  2.559099E+001	  4.120350E+001	  4.591233E+001	  4.829730E+001	  4.960426E+001	  5.030389E+001	  5.063304E+001	  5.072693E+001	  5.066812E+001	  5.050916E+001	  5.028447E+001	  5.124622E+001	  5.156780E+001	  5.183670E+001	  5.201811E+001	  5.205572E+001	  5.185535E+001	  5.125170E+001	  4.993305E+001	  4.722622E+001	  4.103504E+001	  2.862585E+001	  4.392890E+001	  4.837016E+001	  5.045659E+001	  5.147709E+001	  5.192381E+001	  5.203813E+001	  5.195233E+001	  5.174386E+001	  5.146009E+001	  5.113089E+001	  5.207019E+001	  5.250167E+001	  5.290510E+001	  5.325280E+001	  5.349772E+001	  5.355676E+001	  5.327450E+001	  5.233660E+001	  5.002469E+001	  4.409785E+001	  3.214137E+001	  4.702382E+001	  5.105414E+001	  5.272127E+001	  5.337695E+001	  5.352638E+001	  5.340285E+001	  5.312665E+001	  5.276466E+001	  5.235596E+001	  5.192410E+001	  5.282138E+001	  5.335564E+001	  5.388687E+001	  5.439601E+001	  5.484838E+001	  5.517872E+001	  5.525575E+001	  5.478772E+001	  5.303390E+001	  4.755934E+001	  3.612401E+001	  5.044332E+001	  5.386589E+001	  5.498387E+001	  5.521271E+001	  5.504130E+001	  5.467449E+001	  5.421045E+001	  5.370080E+001	  5.317416E+001	  5.264674E+001	  5.399703E+001	  5.468503E+001	  5.540786E+001	  5.615994E+001	  5.692644E+001	  5.767210E+001	  5.831172E+001	  5.861919E+001	  5.789527E+001	  5.344943E+001	  4.271238E+001	  5.604589E+001	  5.830420E+001	  5.848698E+001	  5.803833E+001	  5.737253E+001	  5.663539E+001	  5.588728E+001	  5.515533E+001	  5.445165E+001	  5.378103E+001	  5.405351E+001	  5.474133E+001	  5.546081E+001	  5.620329E+001	  5.694768E+001	  5.764588E+001	  5.818632E+001	  5.829292E+001	  5.720677E+001	  5.234964E+001	  4.088307E+001	  5.496495E+001	  5.776000E+001	  5.826470E+001	  5.797680E+001	  5.738638E+001	  5.668331E+001	  5.594948E+001	  5.522229E+001	  5.451878E+001	  5.384615E+001	  5.379289E+001	  5.445338E+001	  5.514035E+001	  5.584397E+001	  5.654197E+001	  5.718546E+001	  5.766401E+001	  5.770862E+001	  5.658138E+001	  5.173909E+001	  4.005266E+001	  5.432890E+001	  5.715748E+001	  5.771086E+001	  5.747954E+001	  5.694426E+001	  5.629065E+001	  5.559958E+001	  5.490876E+001	  5.423606E+001	  5.358956E+001	  5.327457E+001	  5.387023E+001	  5.447742E+001	  5.508171E+001	  5.565502E+001	  5.614178E+001	  5.642617E+001	  5.624136E+001	  5.487209E+001	  4.984129E+001	  3.797570E+001	  5.246724E+001	  5.553374E+001	  5.633111E+001	  5.631556E+001	  5.595859E+001	  5.544831E+001	  5.487170E+001	  5.427263E+001	  5.367412E+001	  5.308829E+001	  5.260572E+001	  5.311240E+001	  5.360919E+001	  5.407455E+001	  5.447041E+001	  5.472709E+001	  5.470891E+001	  5.412441E+001	  5.225310E+001	  4.675162E+001	  3.452186E+001	  4.947602E+001	  5.309696E+001	  5.436967E+001	  5.471540E+001	  5.463073E+001	  5.432878E+001	  5.391413E+001	  5.344287E+001	  5.294668E+001	  5.244384E+001	  5.185095E+001	  5.225671E+001	  5.262917E+001	  5.293946E+001	  5.313940E+001	  5.314534E+001	  5.280347E+001	  5.180610E+001	  4.945234E+001	  4.355290E+001	  3.093769E+001	  4.632377E+001	  5.045589E+001	  5.220531E+001	  5.293227E+001	  5.314207E+001	  5.306867E+001	  5.283375E+001	  5.250573E+001	  5.212512E+001	  5.171666E+001	  5.102755E+001	  5.132610E+001	  5.156836E+001	  5.171921E+001	  5.172253E+001	  5.148529E+001	  5.084520E+001	  4.949646E+001	  4.677647E+001	  4.061907E+001	  2.766450E+001	  4.338277E+001	  4.788403E+001	  5.001721E+001	  5.108177E+001	  5.156979E+001	  5.172160E+001	  5.166896E+001	  5.148933E+001	  5.123044E+001	  5.092263E+001	  5.015331E+001	  5.034363E+001	  5.045695E+001	  5.045377E+001	  5.027328E+001	  4.981863E+001	  4.892788E+001	  4.730746E+001	  4.433212E+001	  3.801780E+001	  2.478661E+001	  4.074977E+001	  4.549925E+001	  4.791403E+001	  4.925007E+001	  4.997872E+001	  5.033596E+001	  5.045613E+001	  5.042130E+001	  5.028383E+001	  5.007824E+001	  4.924503E+001	  4.933032E+001	  4.932127E+001	  4.917595E+001	  4.883179E+001	  4.819227E+001	  4.710054E+001	  4.527730E+001	  4.212599E+001	  3.571438E+001	  2.226510E+001	  3.840908E+001	  4.332568E+001	  4.594207E+001	  4.748733E+001	  4.841399E+001	  4.894944E+001	  4.922583E+001	  4.932614E+001	  4.930492E+001	  4.919917E+001	  4.831759E+001	  4.830397E+001	  4.818235E+001	  4.790994E+001	  4.742446E+001	  4.663196E+001	  4.538209E+001	  4.340803E+001	  4.013331E+001	  3.365864E+001	  2.003935E+001	  3.631849E+001	  4.135054E+001	  4.411216E+001	  4.581675E+001	  4.690256E+001	  4.758813E+001	  4.800133E+001	  4.822384E+001	  4.831053E+001	  4.829948E+001	  4.738337E+001	  4.727868E+001	  4.705574E+001	  4.667203E+001	  4.606669E+001	  4.514912E+001	  4.377519E+001	  4.168782E+001	  3.832422E+001	  3.180669E+001	  1.805485E+001	  3.443653E+001	  3.955087E+001	  4.241899E+001	  4.424535E+001	  4.545808E+001	  4.626819E+001	  4.679893E+001	  4.712960E+001	  4.731424E+001	  4.739101E+001	  4.645221E+001	  4.626499E+001	  4.595223E+001	  4.547226E+001	  4.476613E+001	  4.374663E+001	  4.227485E+001	  4.010103E+001	  3.667165E+001	  3.012373E+001	  1.626789E+001	  3.272855E+001	  3.790331E+001	  4.085118E+001	  4.277159E+001	  4.408568E+001	  4.499852E+001	  4.562917E+001	  4.605427E+001	  4.632646E+001	  4.648336E+001